

     ************************************************************************
     *************** Dalton - An Electronic Structure Program ***************
     ************************************************************************

    This is output from DALTON release Dalton2022.0-dev (2022)
         ( Web site: http://daltonprogram.org )

   ----------------------------------------------------------------------------

    NOTE:
     
    Dalton is an experimental code for the evaluation of molecular
    properties using (MC)SCF, DFT, CI, and CC wave functions.
    The authors accept no responsibility for the performance of
    the code or for the correctness of the results.
     
    The code (in whole or part) is provided under a licence and
    is not to be reproduced for further distribution without
    the written permission of the authors or their representatives.
     
    See the home page "http://daltonprogram.org" for further information.
     
    If results obtained with this code are published,
    the appropriate citations would be both of:
     
       K. Aidas, C. Angeli, K. L. Bak, V. Bakken,
       R. Bast, L. Boman, O. Christiansen, R. Cimiraglia,
       S. Coriani, P. Dahle, E. K. Dalskov, U. Ekstroem,
       T. Enevoldsen, J. J. Eriksen, P. Ettenhuber, B. Fernandez,
       L. Ferrighi, H. Fliegl, L. Frediani, K. Hald, A. Halkier,
       C. Haettig, H. Heiberg, T. Helgaker, A. C. Hennum,
       H. Hettema, E. Hjertenaes, S. Hoest, I.-M. Hoeyvik,
       M. F. Iozzi, B. Jansik, H. J. Aa. Jensen, D. Jonsson,
       P. Joergensen, J. Kauczor, S. Kirpekar,
       T. Kjaergaard, W. Klopper, S. Knecht, R. Kobayashi, H. Koch,
       J. Kongsted, A. Krapp, K. Kristensen, A. Ligabue,
       O. B. Lutnaes, J. I. Melo, K. V. Mikkelsen, R. H. Myhre,
       C. Neiss, C. B. Nielsen, P. Norman, J. Olsen,
       J. M. H. Olsen, A. Osted, M. J. Packer, F. Pawlowski,
       T. B. Pedersen, P. F. Provasi, S. Reine, Z. Rinkevicius,
       T. A. Ruden, K. Ruud, V. Rybkin, P. Salek, C. C. M. Samson,
       A. Sanchez de Meras, T. Saue, S. P. A. Sauer,
       B. Schimmelpfennig, K. Sneskov, A. H. Steindal,
       K. O. Sylvester-Hvid, P. R. Taylor, A. M. Teale,
       E. I. Tellgren, D. P. Tew, A. J. Thorvaldsen, L. Thoegersen,
       O. Vahtras, M. A. Watson, D. J. D. Wilson, M. Ziolkowski
       and H. Agren,
       "The Dalton quantum chemistry program system",
       WIREs Comput. Mol. Sci. 2014, 4:269-284 (doi: 10.1002/wcms.1172)
     
    and
     
       Dalton, a molecular electronic structure program,
       Release Dalton2022.0-dev (2022), see http://daltonprogram.org
   ----------------------------------------------------------------------------

    Authors in alphabetical order (Major contribution(s) in parenthesis):

  Kestutis Aidas,              Vilnius University,        Lithuania   (QM/MM)
  Celestino Angeli,            University of Ferrara,     Italy       (NEVPT2)
  Juan J. Aucar,               Northeast National UniversiArgentina   (LRESC, Relativistic Effects on EFG)
  Keld L. Bak,                 UNI-C,                     Denmark     (AOSOPPA, non-adiabatic coupling, magnetic properties)
  Vebjoern Bakken,             University of Oslo,        Norway      (DALTON; geometry optimizer, symmetry detection)
  Radovan Bast,                UiT The Arctic U. of NorwayNorway      (DALTON installation and execution frameworks)
  Pablo Baudin,                University of Valencia,    Spain       (Cholesky excitation energies)
  Linus Boman,                 NTNU,                      Norway      (Cholesky decomposition and subsystems)
  Bruno N. Cabral Tenorio,     Technical Univ. of Denmark,Denmark     (Lanczos-based CC methods)
  Ove Christiansen,            Aarhus University,         Denmark     (CC module)
  Renzo Cimiraglia,            University of Ferrara,     Italy       (NEVPT2)
  Sonia Coriani,               Technical Univ. of Denmark,Denmark     (CC and RESPONS modules)
  Janusz Cukras,               University of Warsaw,      Poland      (MChD in RESPONS)
  Paal Dahle,                  University of Oslo,        Norway      (Parallelization)
  Erik K. Dalskov,             UNI-C,                     Denmark     (SOPPA)
  Thomas Enevoldsen,           Univ. of Southern Denmark, Denmark     (SOPPA)
  Janus J. Eriksen,            Aarhus University,         Denmark     (Polarizable embedding, TDA)
  Rasmus Faber,                Technical Univ. of Denmark,Denmark     (Vib.avg. NMR w. SOPPA, parallel AO-SOPPA, CVS-CC and EOMCC)
  Tobias Fahleson,             KTH Stockholm,             Sweden      (Damped cubic response)
  Berta Fernandez,             U. of Santiago de CompostelSpain       (Doublet spin, ESR in RESPONS)
  Lara Ferrighi,               Aarhus University,         Denmark     (PCM Cubic response)
  Heike Fliegl,                University of Oslo,        Norway      (CCSD(R12))
  Luca Frediani,               UiT The Arctic U. of NorwayNorway      (PCM)
  Emmanuel Fromager,           Univ. Strasbourg,          France      (MC-srDFT)
  Bin Gao,                     UiT The Arctic U. of NorwayNorway      (Gen1Int library)
  Andre S. P. Gomes,           CNRS/Universite de Lille,  France      (Frozen density embedding)
  Christof Haettig,            Ruhr-University Bochum,    Germany     (CC module)
  Kasper Hald,                 Aarhus University,         Denmark     (CC module)
  Asger Halkier,               Aarhus University,         Denmark     (CC module)
  Frederik Beyer Hansen,       University of Copenhagen,  Denmark     (Parallel AO-SOPPA)
  Erik D. Hedegaard,           Univ. of Southern Denmark, Denmark     (Polarizable embedding, QM/MM, and MC-srDFT)
  Hanne Heiberg,               University of Oslo,        Norway      (Geometry analysis, selected one-electron integrals)
  Trygve Helgaker,             University of Oslo,        Norway      (DALTON; ABACUS, ERI, DFT modules, London, and much more)
  Alf Christian Hennum,        University of Oslo,        Norway      (Parity violation)
  Hinne Hettema,               University of Auckland,    New Zealand (Quadratic response in RESPONS; SIRIUS supersymmetry)
  Andreas E. Hillers-Bendtsen, University of Copenhagen,  Denmark     (MP3)
  Eirik Hjertenaes,            NTNU,                      Norway      (Cholesky decomposition)
  Nicolai Machholdt Hoeyer,    Aarhus University,         Denmark     (MP3)
  Pi A. B. Haase,              University of Copenhagen,  Denmark     (Triplet AO-SOPPA)
  Maria Francesca Iozzi,       University of Oslo,        Norway      (RPA)
  Christoph Jacob,             TU Braunschweig            Germany     (Frozen density embedding)
  Brano Jansik,                Technical Univ. of Ostrava Czech Rep.  (DFT cubic response)
  Hans Joergen Aa. Jensen,     Univ. of Southern Denmark, Denmark     (DALTON; SIRIUS, RESPONS, ABACUS, MC-srDFT, and much more)
  Dan Jonsson,                 UiT The Arctic U. of NorwayNorway      (Cubic response in RESPONS module)
  Poul Joergensen,             Aarhus University,         Denmark     (RESPONS, ABACUS, and CC modules)
  Maciej Kaminski,             University of Warsaw,      Poland      (CPPh in RESPONS)
  Joanna Kauczor,              Linkoeping University,     Sweden      (Complex polarization propagator (CPP) module)
  Sheela Kirpekar,             Univ. of Southern Denmark, Denmark     (Mass-velocity & Darwin integrals)
  Frederik Oersted Kjeldal,    Technical Univ. of Denmark,Denmark     (MP3)
  Erik Kjellgren,              Univ. of Southern Denmark, Denmark     (MC-srDFT)
  Wim Klopper,                 KIT Karlsruhe,             Germany     (R12 code in CC, SIRIUS, and ABACUS modules)
  Stefan Knecht,               ETH Zurich,                Switzerland (Parallel CI and MCSCF, MC-srDFT)
  Rika Kobayashi,              Australian National Univ., Australia   (DIIS in CC, London in MCSCF)
  Henrik Koch,                 NTNU,                      Norway      (CC module, Cholesky decomposition)
  Jacob Kongsted,              Univ. of Southern Denmark, Denmark     (Polarizable embedding, polarizable density embedding, QM/MM)
  Andrea Ligabue,              University of Modena,      Italy       (CTOCD, AOSOPPA)
  Nanna H. List,               Univ. of Southern Denmark, Denmark     (Polarizable embedding)
  Ola B. Lutnaes,              University of Oslo,        Norway      (DFT Hessian)
  Juan I. Melo,                University of Buenos Aires,Argentina   (LRESC, Relativistic Effects on NMR Shieldings)
  Kurt V. Mikkelsen,           University of Copenhagen,  Denmark     (MC-SCRF, QM/MM, and MP3)
  Rolf H. Myhre,               NTNU,                      Norway      (Subsystems and CC3)
  Christian Neiss,             Univ. Erlangen-Nuernberg,  Germany     (CCSD(R12))
  Christian B. Nielsen,        University of Copenhagen,  Denmark     (QM/MM)
  Patrick Norman,              KTH Stockholm,             Sweden      (Cubic response and complex frequency response in RESPONS)
  Jeppe Olsen,                 Aarhus University,         Denmark     (SIRIUS CI/density modules)
  Jogvan Magnus H. Olsen,      Aarhus University,         Denmark     (Polarizable embedding and polarizable density embedding)
  Anders Osted,                Copenhagen University,     Denmark     (QM/MM)
  Martin J. Packer,            University of Sheffield,   UK          (SOPPA)
  Filip Pawlowski,             Kazimierz Wielki UniversityPoland      (CC3)
  Morten N. Pedersen,          Univ. of Southern Denmark, Denmark     (Polarizable embedding)
  Thomas B. Pedersen,          University of Oslo,        Norway      (Cholesky decomposition)
  Patricio F. Provasi,         University of Northeastern,Argentina   (Analysis of coupling constants in localized orbitals)
  Peter Reinholdt,             Univ. of Southern Denmark, Denmark     (Polarizable embedding and polarizable density embedding)
  Zilvinas Rinkevicius,        KTH Stockholm,             Sweden      (open-shell DFT, ESR)
  Elias Rudberg,               KTH Stockholm,             Sweden      (DFT grid and basis info)
  Torgeir A. Ruden,            University of Oslo,        Norway      (Numerical derivatives in ABACUS)
  Kenneth Ruud,                UiT The Arctic U. of NorwayNorway      (DALTON; ABACUS magnetic properties and much more)
  Pawel Salek,                 KTH Stockholm,             Sweden      (DALTON; DFT code)
  Claire C. M. Samson,         University of Karlsruhe    Germany     (Boys localization, r12 integrals in ERI)
  Alfredo Sanchez de Meras,    University of Valencia,    Spain       (CC module, Cholesky decomposition)
  Trond Saue,                  Paul Sabatier University,  France      (direct Fock matrix construction)
  Stephan P. A. Sauer,         University of Copenhagen,  Denmark     (SOPPA(CCSD), SOPPA prop., AOSOPPA, vibrational g-factors)
  Bernd Schimmelpfennig,       Forschungszentrum KarlsruheGermany     (AMFI module)
  Anna K. Schnack-Petersen,    University of Copenhagen,  Denmark     (RPA(D) and HRPA(D) properties in AOSOPPA)
  Kristian Sneskov,            Aarhus University,         Denmark     (Polarizable embedding, QM/MM)
  Arnfinn H. Steindal,         UiT The Arctic U. of NorwayNorway      (parallel QM/MM, polarizable embedding)
  Casper Steinmann,            Aalborg University,        Denmark     (QFIT, polarizable embedding)
  K. O. Sylvester-Hvid,        University of Copenhagen,  Denmark     (MC-SCRF)
  Peter R. Taylor,             VLSCI/Univ. of Melbourne,  Australia   (Symmetry handling ABACUS, integral transformation)
  Andrew M. Teale,             University of Nottingham,  England     (DFT-AC, DFT-D)
  David P. Tew,                University of Bristol,     England     (CCSD(R12))
  Julien Toulouse,             Sorbonne Univ.,            France      (MC-srDFT)
  Olav Vahtras,                KTH Stockholm,             Sweden      (Triplet response, spin-orbit, ESR, TDDFT, open-shell DFT)
  Lucas Visscher,              Vrije Universiteit AmsterdaNetherlands (Frozen density embedding)
  David J. Wilson,             La Trobe University,       Australia   (DFT Hessian and DFT magnetizabilities)
  Luna Zamok,                  University of Copenhagen,  Denmark     (Block Lanczos RPA solver in SOPPA module)
  Hans Agren,                  KTH Stockholm,             Sweden      (SIRIUS module, RESPONS, MC-SCRF solvation)
 --------------------------------------------------------------------------------

     Date and time (Linux)  : Fri Apr  7 16:46:08 2023
     Host name              : hapka                                   

 * Work memory size             :    12800000 =   97.66 megabytes.

 * Directories for basis set searches:
   1) /home/hapka/Programs/gammcor-testjobs/workshop/h2_h2/cas_2_2/1.0/MONOMER_B
   2) /home/hapka/Programs/dalton/build_intel/basis


Compilation information
-----------------------

 Who compiled             | hapka
 Host                     | hapka
 System                   | Linux-5.15.0-69-generic
 CMake generator          | Unix Makefiles
 Processor                | x86_64
 64-bit integers          | OFF
 MPI                      | OFF
 Fortran compiler         | /usr/bin/gfortran
 Fortran compiler version | GNU Fortran (Ubuntu 9.4.0-1ubuntu1~20.04.1) 9.4.0
 C compiler               | /usr/bin/gcc
 C compiler version       | gcc (Ubuntu 9.4.0-1ubuntu1~20.04.1) 9.4.0
 C++ compiler             | /usr/bin/g++
 C++ compiler version     | g++ (Ubuntu 9.4.0-1ubuntu1~20.04.1) 9.4.0
 BLAS                     | /opt/intel/oneapi/mkl/2023.0.0/lib/intel64/libmkl_
                          | gf_lp64.so;/opt/intel/oneapi/mkl/2023.0.0/lib/inte
                          | l64/libmkl_sequential.so;/opt/intel/oneapi/mkl/202
                          | 3.0.0/lib/intel64/libmkl_core.so;/usr/lib/x86_64-l
                          | inux-gnu/libpthread.so;/usr/lib/x86_64-linux-gnu/l
                          | ibm.so
 LAPACK                   | /opt/intel/oneapi/mkl/2023.0.0/lib/intel64/libmkl_
                          | lapack95_lp64.a;/opt/intel/oneapi/mkl/2023.0.0/lib
                          | /intel64/libmkl_gf_lp64.so
 Static linking           | OFF
 Last Git revision        | 4d6ac05be54d7f9c5fe49e0ac32a42491a6c6955
 Git branch               | master
 Configuration time       | 2023-04-03 19:38:25.142231


   Content of the .dal input file
 ----------------------------------

**DALTON INPUT
.RUN WAVE FUNCTIONS
.GAMMCOR
**WAVE FUNCTIONS
.HF
.MP2
.MCSCF
.INTERFACE
*CONFIGURATION INPUT
.SYMMETRY
 1
.SPIN MUL
 1
.INACTIVE
 0
.ELECTRONS
 2
.CAS SPACE
 2
*OPTIMI
.THRESH
 1.0D-7
.TRACI
**END OF DALTON INPUT



   Content of the .mol file
 ----------------------------

BASIS
aug-cc-pVDZ
H2 dimer : monomer B
for SAPT(CAS)
Atomtypes=2 Nosymmetry Bohr
 Charge=1.0   Atoms=2   Ghost
H   0.00000000   0.0000000000    .71993880931
H   0.00000000   0.0000000000   -0.72006119069
 Charge=1.0   Atoms=2
H   0.00000000   0.72006119069 -6.93000000000
H   0.00000000  -0.72006119069 -6.93000000000



       *******************************************************************
       *********** Output from DALTON general input processing ***********
       *******************************************************************

 --------------------------------------------------------------------------------
   Overall default print level:    0
   Print level for DALTON.STAT:    1

    HERMIT 1- and 2-electron integral sections will be executed
    "Old" integral transformation used (limited to max 255 basis functions)
    Wave function sections will be executed (SIRIUS module)
    Information for GammCor will be calculated and written to files.
 --------------------------------------------------------------------------------


   ****************************************************************************
   *************** Output of molecule and basis set information ***************
   ****************************************************************************


    The two title cards from your ".mol" input:
    --------------------------------------------------------------------------------
 1: H2 dimer : monomer B
 2: for SAPT(CAS)
    --------------------------------------------------------------------------------

  Atomic type no.    1
  --------------------
  Nuclear charge:   1.00000
  Number of symmetry independent centers:    2
  Number of basis sets to read;    2
  Basis set file used for this atomic type with Z =   1 :
     "/home/hapka/Programs/dalton/build_intel/basis/aug-cc-pVDZ"

  Atomic type no.    2
  --------------------
  Nuclear charge:   1.00000
  Number of symmetry independent centers:    2
  Number of basis sets to read;    2
  Basis set file used for this atomic type with Z =   1 :
     "/home/hapka/Programs/dalton/build_intel/basis/aug-cc-pVDZ"


                         SYMGRP: Point group information
                         -------------------------------

@    Point group: C1 


                                 Isotopic Masses
                                 ---------------

                           H           0.000000
                           H           0.000000
                           H           1.007825
                           H           1.007825

                       Total mass:     2.015650 amu
                       Natural abundance:   0.000 %

 Center-of-mass coordinates (a.u.):    0.000000    0.000000   -6.930000
 Center-of-mass coordinates (Angs):    0.000000    0.000000   -3.667198


  Atoms and basis sets
  --------------------

  Number of atom types :    2
  Total number of atoms:    4

  Basis set used is "aug-cc-pVDZ" from the basis set library.

  label    atoms   charge   prim   cont     basis
  ----------------------------------------------------------------------
  H           2    0.0000    11     9      [5s2p|3s2p]                                        
  H           2    1.0000    11     9      [5s2p|3s2p]                                        
  ----------------------------------------------------------------------
  total:      4    2.0000    44    36
  ----------------------------------------------------------------------

  Threshold for neglecting AO integrals:  1.00D-12


  Cartesian Coordinates (a.u.)
  ----------------------------

  Total number of coordinates:   12
  H       :     1  x   0.0000000000    2  y   0.0000000000    3  z   0.7199388093
  H       :     4  x   0.0000000000    5  y   0.0000000000    6  z  -0.7200611907
  H       :     7  x   0.0000000000    8  y   0.7200611907    9  z  -6.9300000000
  H       :    10  x   0.0000000000   11  y  -0.7200611907   12  z  -6.9300000000


   Interatomic separations (in Angstrom):
   --------------------------------------

            H           H           H           H     
            ------      ------      ------      ------
 H     :    0.000000
 H     :    0.762015    0.000000
 H     :    4.066067    3.308176    0.000000
 H     :    4.066067    3.308176    0.762080    0.000000


  Max    interatomic separation is    4.0661 Angstrom (    7.6838 Bohr)
  between atoms    3 and    1, "H     " and "H     ".

  Min HX interatomic separation is    0.7621 Angstrom (    1.4401 Bohr)

  Min YX interatomic separation is    0.7620 Angstrom (    1.4400 Bohr)

@ WARNING: Number of short HX and YX bond lengths:    0    1
@ WARNING: If not intentional, maybe your coordinates were in Angstrom,
@ WARNING: but "Angstrom" was not specified in .mol file


  Bond distances (Angstrom):
  --------------------------

                  atom 1     atom 2       distance
                  ------     ------       --------
  bond distance:  H          H            0.762080


  Bond angles (degrees):
  ----------------------

                  atom 1     atom 2     atom 3         angle
                  ------     ------     ------         -----
     No angles found




 Principal moments of inertia (u*A**2) and principal axes
 --------------------------------------------------------

   IA       0.000000          0.000000    1.000000    0.000000
   IB       0.292655          1.000000    0.000000    0.000000
   IC       0.292655          0.000000    0.000000    1.000000


 Rotational constants
 --------------------

@    The molecule is linear.

               B =      1726875.39 MHz     (   57.602363 cm-1)


@  Nuclear repulsion energy :    0.694385430662 Hartree

  Number of floating/multiple basis set orbitals :    2


                     .---------------------------------------.
                     | Starting in Integral Section (HERMIT) |
                     `---------------------------------------'



 ***************************************************************************************
 ****************** Output from **INTEGRALS input processing (HERMIT) ******************
 ***************************************************************************************


 - Using defaults, no **INTEGRALS input found

 Default print level:        1

 Calculation of one- and two-electron Hamiltonian integrals.

 Center of mass  (bohr):      0.000000000000      0.000000000000     -6.930000000000
 Operator center (bohr):      0.000000000000      0.000000000000      0.000000000000
 Gauge origin    (bohr):      0.000000000000      0.000000000000      0.000000000000
 Dipole origin   (bohr):      0.000000000000      0.000000000000      0.000000000000

Calculation of 2-electron integrals are postponed until they are needed.


     ************************************************************************
     ************************** Output from HERINT **************************
     ************************************************************************



                      Nuclear contribution to dipole moments
                      --------------------------------------

                 au               Debye          C m (/(10**-30)

      x      0.00000000         0.00000000         0.00000000
      y      0.00000000         0.00000000         0.00000000
      z    -13.86000000       -35.22860382      -117.50997360


  Total CPU  time used in HERMIT:   0.01 seconds
  Total wall time used in HERMIT:   0.01 seconds


                        .----------------------------------.
                        | End of Integral Section (HERMIT) |
                        `----------------------------------'



                   .--------------------------------------------.
                   | Starting in Wave Function Section (SIRIUS) |
                   `--------------------------------------------'


 CI program in use: SIRIUS-CI

 *** Output from Huckel module :

     Using EWMO model:          T
     Using EHT  model:          F
     Number of Huckel orbitals each symmetry:    4

 EWMO - Energy Weighted Maximum Overlap - is a Huckel type method,
        which normally is better than Extended Huckel Theory.
 Reference: Linderberg and Ohrn, Propagators in Quantum Chemistry (Wiley, 1973)

 Huckel EWMO eigenvalues for symmetry :  1
           -0.855446      -0.144554      -0.000000       0.000000

 **********************************************************************
 *SIRIUS* a direct, restricted step, second order MCSCF program       *
 **********************************************************************

 
     Date and time (Linux)  : Fri Apr  7 16:46:08 2023
     Host name              : hapka                                   

 Title lines from ".mol" input file:
     H2 dimer : monomer B
     for SAPT(CAS)

 Print level on unit LUPRI =   2 is   0
 Print level on unit LUW4  =   2 is   5

@    MCSCF optimization.
@              Type: complete active space calculation (CAS).

@    This is a combination run starting with
@              a restricted, closed shell Hartree-Fock calculation
@              an MP2 calculation


 Initial molecular orbitals are obtained according to
 ".MOSTART EWMO  " input option

     Wave function specification
     ============================
@    Wave function type        --- MC-SCF ---
@    Number of closed shell electrons           0
@    Number of electrons in active shells       2
@    Total charge of the molecule               0

@    Spin multiplicity and 2 M_S                1         0
@    Total number of symmetries                 1 (point group: C1 )
@    Reference state symmetry                   1 (irrep name : A  )

     Orbital specifications
     ======================
@    Abelian symmetry species          All |    1
@                                          |  A  
                                       --- |  ---
@    Inactive orbitals                   0 |    0
@    Active orbitals                     2 |    2
@    Secondary orbitals                 34 |   34
@    Total number of orbitals           36 |   36
@    Number of basis functions          36 |   36

      -- Initial occupation of symmetries is determined from total charge (only one symmetry!)
      -- Initial occupation of symmetries is :
@    Occupied SCF orbitals               1 |    1

     Optimization information
     ========================
@    Number of configurations                 3
@    Number of orbital rotations             68
     ------------------------------------------
@    Total number of variables               71

     Maximum number of macro iterations      25
     Maximum number of micro iterations     600
     Threshold for MCSCF gradient      1.00D-07
     Number of initial trial vectors          1
     Number of initial CI iterations         -1
     Number of simultaneous trial vectors     1

@    This calculation converges to the lowest state for the specified symmetry and spin species.

     Maximum number of NEO/NR iterations  24


 ***********************************************
 ***** DIIS acceleration of SCF iterations *****
 ***********************************************

 C1-DIIS algorithm; max error vectors =    8

 Iter      Total energy        Error norm    Delta(E)  DIIS dim.
 -----------------------------------------------------------------------------

Calculating AOSUPINT

---> (Re)generating AOTWOINT


     ************************************************************************
     ************************** Output from HERINT **************************
     ************************************************************************


 Threshold for neglecting two-electron integrals:  1.00D-12
 HERMIT - Number of two-electron integrals written:      113329 ( 51.0% )
 HERMIT - Megabytes written:                              1.298

  Total CPU  time used in TWOINT:   0.02 seconds
  Total wall time used in TWOINT:   0.02 seconds
     (Precalculated AO two-electron integrals are transformed to P-supermatrix elements.
      Threshold for discarding integrals :  1.00D-12 )

@  1    -1.11366072115        3.90058D-01   -1.11D+00    1
      Virial theorem: -V/T =      2.216348
@    MULPOP   H      -0.00; H       0.00; 
   1  Level shift: doubly occupied orbital energies shifted by -2.00D-01
 -----------------------------------------------------------------------------
@  2    -1.12752204121        9.46466D-02   -1.39D-02    2
      Virial theorem: -V/T =      2.096404
@    MULPOP   H      -0.00; H      -0.00; 
   2  Level shift: doubly occupied orbital energies shifted by -5.00D-02
 -----------------------------------------------------------------------------
@  3    -1.12867151580        1.05774D-02   -1.15D-03    3
      Virial theorem: -V/T =      2.053029
@    MULPOP   H      -0.00; H      -0.00; 
   3  Level shift: doubly occupied orbital energies shifted by -1.25D-02
 -----------------------------------------------------------------------------
@  4    -1.12869415730        5.81688D-04   -2.26D-05    4
      Virial theorem: -V/T =      2.048048
@    MULPOP   H      -0.00; H      -0.00; 
 -----------------------------------------------------------------------------
@  5    -1.12869423029        3.95316D-05   -7.30D-08    5
      Virial theorem: -V/T =      2.048020
@    MULPOP   H      -0.00; H      -0.00; 
 -----------------------------------------------------------------------------
@  6    -1.12869423059        7.89888D-07   -3.04D-10    6

@ *** DIIS converged in   6 iterations !
@     Converged SCF energy, gradient:     -1.128694230592    7.90D-07
    - total time used in SIRFCK :              0.00 seconds

 --- Writing SIRIFC interface file

--------------------------------------------------------------------------------


     .--------------------------------------------------.
     | HF-SCF KT IPs [a.u. & eV] from Koopmans' theorem |
     `--------------------------------------------------'


     HF-SCF KT symmetry 1 ( A  ) in point group C1  -- 1 principal poles with pole strength 1

   ============
       0.586193
      15.951130
   ============

@ Summary of HF-SCF KT ionization potentials [eV]:

@ Symmetry 1 (A  ) :    15.951

  === End of HF-SCF KT output ===
--------------------------------------------------------------------------------


 CPU and wall time for SCF :       0.030       0.030


 ----- Output from SIRIUS MP2 module -----

 Reference: H.J.Aa.Jensen, P.Jørgensen, H.Ågren, and J.Olsen,
            J. Chem. Phys. 88, 3834 (1988); 89, 5354 (1988)

 Checking that the closed shell orbitals are canonical Hartree-Fock orbitals

    Number of electrons  :    2
    Closed shell orbitals:    1

 Generating Fock matrix

 Hartree-Fock electronic energy:          -1.823079661254
 Hartree-Fock total      energy:          -1.128694230592

 Hartree-Fock orbital energies, symmetry 1 ( A  ),    1 occupied SCF orbitals

        -0.58619325     0.04183575     0.06116948     0.07573345     0.08852190
         0.22977840     0.24652676     0.27481632     0.27631941     0.33271918
         0.33868081     0.36572826     0.42153343     0.42648319     0.48647726
         0.45743995     0.52800470     0.56530802     0.60914541     0.66751195
         0.79294521     1.21388537     1.47338509     1.60753815     1.66906959
         1.91055571     1.94476523     1.95160370     2.07051202     2.22975089
         2.24070405     2.50048842     2.51544630     2.53264078     3.59261857
         4.63235784

    E(LUMO) :     0.04183575   (in symmetry 1)
  - E(HOMO) :    -0.58619325   (in symmetry 1)
  --------------------------
    gap     :     0.62802899

 2-el. integral transformation level 5: Total CPU and WALL times (sec)       0.018       0.018

 MP2 move   0.019937 electrons to unoccupied HF orbitals


@   Hartree-Fock total energy   :            -1.1286942306
@   + MP2 contribution          :            -0.0275252531
@   = MP2 second order energy   :            -1.1562194837

 Natural orbital occupation numbers, symmetry 1 (irrep A  )
 Sum =     2.00000000; RHF =     2.00000000; Difference =     0.00000000

         1.98009357     0.00968439     0.00362726     0.00265322     0.00263524
         0.00030382     0.00024852     0.00024180     0.00024159     0.00009107
         0.00008972     0.00003936     0.00002654     0.00001052     0.00001046
         0.00000179     0.00000072     0.00000034     0.00000003     0.00000001
         0.00000001     0.00000000     0.00000000     0.00000000     0.00000000
         0.00000000     0.00000000     0.00000000     0.00000000     0.00000000
         0.00000000     0.00000000     0.00000000     0.00000000     0.00000000
        -0.00000000

 Time used for MP2 natural orbitals :       0.019 CPU seconds,       0.020 wall seconds.

 CPU and wall time for MP2 :       0.019       0.020


        SIRIUS MCSCF optimization (SIROPT)
 ================================================



 ----- Output from SIRIUS CI module (CICTL) -----




 2-el. integral transformation level 0: Total CPU and WALL times (sec)       0.010       0.010

 (CIST1) 3 lowest diagonal elements:

 Element no. Config.no.    Active energy      Total energy

         1 :          1     -1.8230401504     -1.1286547198
         2 :          3     -1.0936023282     -0.3992168975
         3 :          2     -0.3092498419      0.3851355888
First 1 elements used as separate start vectors.


 Convergence threshold for CI optimization :     0.01000000


 The requested root number is now converged.


 *** CI converged in  2 iterations.



@ Final CI energies and residuals in symmetry 1 (irrep A  )
@    1       -1.147342480627108       1.33D-15

   --- OUTPUT FROM SIRCNO     Keyword = ONLYFD



 --- MACRO ITERATION  1 ---
 --------------------------

 2-el. integral transformation level 3: Total CPU and WALL times (sec)       0.015       0.015

 Total MCSCF energy       :            -1.147342480627108  (MACRO    1)

 - Nuclear repulsion      :             0.694385430661628
 - Inactive energy        :             0.000000000000000
 - Active energy          :            -1.841727911288735

 Norm of total gradient   :             0.036873783642
 -    of CI gradient      :             0.000000000000
 -    of orbital gradient :             0.036873783642


 *** Label "NATOCC  " not found on SIRIUS.RST in SIRPOP

 WARNING, occupation of active orbitals not available
          population analysis aborted.
          Use ".TRACI" option.


 Residual norm when dim(red L) =   4
 NEO root     CSF        orbital          total
    1     0.00000000     0.00031658     0.00031658 converged

 (NEONEX) NEO vector is converged.

   --- OUTPUT FROM SIRCNO     Keyword = FD+NO 


 Occupations of CAS natural orbitals:

 Symmetry  1 ( irrep A   in C1  )

   1.974568214   0.025431786


 --- MACRO ITERATION  2 ---
 --------------------------

 2-el. integral transformation level 3: Total CPU and WALL times (sec)       0.015       0.014

 Total MCSCF energy       :            -1.147496043941538  (MACRO    2)

 - Nuclear repulsion      :             0.694385430661628
 - Inactive energy        :             0.000000000000000
 - Active energy          :            -1.841881474603166

 Norm of total gradient   :             0.000399721869
 -    of CI gradient      :             0.000221384613
 -    of orbital gradient :             0.000332815903
      Virial theorem: -V/T =      2.027810
@    MULPOP   H       0.00; H      -0.00; 

 Residual norm when dim(red L) =   5
 NEO root     CSF        orbital          total
    1     0.00000000     0.00000078     0.00000078 converged

 (NEONEX) NEO vector is converged.

   --- OUTPUT FROM SIRCNO     Keyword = FD+NO 


 Occupations of CAS natural orbitals:

 Symmetry  1 ( irrep A   in C1  )

   1.974630798   0.025369202


 --- MACRO ITERATION  3 ---
 --------------------------

 2-el. integral transformation level 3: Total CPU and WALL times (sec)       0.015       0.015

 Total MCSCF energy       :            -1.147496107652591  (MACRO    3)

 - Nuclear repulsion      :             0.694385430661628
 - Inactive energy        :             0.000000000000000
 - Active energy          :            -1.841881538314218

 Norm of total gradient   :             0.000000847742
 -    of CI gradient      :             0.000000140810
 -    of orbital gradient :             0.000000835966
      Virial theorem: -V/T =      2.027970
@    MULPOP   H       0.00; H      -0.00; 

 Residual norm when dim(red L) =   4
 NEO root     CSF        orbital          total
    1     0.00000000     0.00000002     0.00000002 converged

 (NEONEX) NEO vector is converged.

   --- OUTPUT FROM SIRCNO     Keyword = FD+NO 


 Occupations of CAS natural orbitals:

 Symmetry  1 ( irrep A   in C1  )

   1.974630876   0.025369124


 --- MACRO ITERATION  4 ---
 --------------------------

 2-el. integral transformation level 3: Total CPU and WALL times (sec)       0.015       0.015

 Total MCSCF energy       :            -1.147496107652894  (MACRO    4)

 - Nuclear repulsion      :             0.694385430661628
 - Inactive energy        :             0.000000000000000
 - Active energy          :            -1.841881538314522

 Norm of total gradient   :             0.000000024137
 -    of CI gradient      :             0.000000000002
 -    of orbital gradient :             0.000000024137
      Virial theorem: -V/T =      2.027970
@    MULPOP   H       0.00; H      -0.00; 

 (SIRSTP) Energy difference;
 actual, predicted and ratio:  -0.000000000000303  -0.000000000000304    0.999263
 Close to convergence, ratio set to one.

 *** Optimization control: MCSCF converged ***
     Number of macro iterations used            4
     Number of micro iterations used            9
     Total number of CPU seconds used         0.09
     Total WALL time used (seconds)           0.09

--------------------------------------------------------------------------------


     .---------------------------------------------------------------.
     | MCSCF EKT IPs [a.u. & eV], pole strengths, and Dyson orbitals |
     `---------------------------------------------------------------'


     MCSCF EKT symmetry 1 ( A  ) in point group C1  -- 1 principal poles

   ============  ============
       0.603261      1.321673
      16.415559     35.964558
   ------------  ------------
       0.987315      0.012685
   ============  ============
      -0.993637      0.000000
      -0.000000     -0.112626
   ============  ============

@ Summary of MCSCF EKT ionization potentials [eV] and pole strengths:

@ Symmetry 1 (A  ) :    16.416      35.965
@ Pole strengths   :     0.987       0.013

  === End of MCSCF EKT output ===
--------------------------------------------------------------------------------

 GammCor rdmfile: rdm2.dat    
 GammCor rdmfile: rdms2.dat   
 GammCor rdmfile: rdms201.dat 
 GammCor rdmfile: rdms210.dat 

 CPU and wall time for MCSCF :       0.095       0.094


                     .----------------------------------------.
                     | --- SIRIUS OPTIMIZATION STATISTICS --- |
                     `----------------------------------------'


 
     Date and time (Linux)  : Fri Apr  7 16:46:08 2023
     Host name              : hapka                                   


  ITER ITMIC     EMCSCF           GRDNRM        RATIO      STPLNG
 ---------------------------------------------------------------------
    1    3     -1.147342480627   0.0368737836  0.000000   0.0322972163
    2    3     -1.147496043942   0.0003997219  0.990117   0.0009304882
    3    3     -1.147496107653   0.0000008477  1.000826   0.0000023923
    4    0     -1.147496107653   0.0000000241  1.000000   0.0000000000


  ITER  INDGCM  GCIMAX      GCINRM     INDGOM  GOBMAX      GOBNRM      GRDNRM
 ------------------------------------------------------------------------------
    1      3    0.000000    0.000000     27    0.028892    0.036874    0.036874
    2      2   -0.000220    0.000221     19   -0.000201    0.000333    0.000400
    3      2   -0.000000    0.000000     12    0.000001    0.000001    0.000001
    4      2   -0.000000    0.000000     30    0.000000    0.000000    0.000000


  ITER ITMIC NCLIN NOLIN   TIMMAC    TIMITR    TIMMIC    TIMLIN    TIMMIC/ITMIC
 ------------------------------------------------------------------------------

    1     3     1     2      0.02      0.01      0.01      0.00      0.00
    2     3     1     3      0.02      0.01      0.01      0.00      0.00
    3     3     1     2      0.02      0.02      0.01      0.00      0.00
    4     0     0     0      0.02      0.01      0.00      0.00


 ITER         EMY                 EACTIV              EMCSCF

    1      0.000000000000     -1.841727911289     -1.147342480627
    2      0.000000000000     -1.841881474603     -1.147496043942
    3      0.000000000000     -1.841881538314     -1.147496107653
    4      0.000000000000     -1.841881538315     -1.147496107653


 ITER         DEPRED              DEACT               RATIO

    1      0.000000000000      0.000000000000      0.000000000000
    2     -0.000155096117     -0.000153563314      0.990117078334
    3     -0.000000063658     -0.000000063711      1.000826123026
    4     -0.000000000000     -0.000000000000      1.000000000000


 ITER    BETA           GAMMA             STPLNG              RTRUST

    1      0.20000000  1.00000000      0.032297216263      0.700000000000
    2      0.20000000  1.00000000      0.000930488159      0.700000000000
    3      0.20000000  1.00000000      0.000002392321      0.700000000000
    4      0.00000000  0.00000000      0.000000000000      0.700000000000


 Reduced L root no.  1
 ITER         EVAL              EVEC(1)           EVEC(2)           EVEC(3)
 ----------------------------------------------------------------------------
    1   -0.000012407172    0.999979138449   -0.006392359362   -0.000604421921
    2   -0.000000005093    0.999999982684   -0.000027944536   -0.000182970984
    3   -0.000000000000    1.000000000000   -0.000000474137   -0.000000035155
    4    0.000000000000    0.000000000000    0.000000000000    0.000000000000


                       .-----------------------------------.
                       | --- Final results from SIRIUS --- |
                       `-----------------------------------'


@    Spin multiplicity:           1
@    Spatial symmetry:            1 ( irrep  A   in C1  )
@    Total charge of molecule:    0

@    This was an MCSCF calculation.
@    State number:                1

@    Final MCSCF energy:           -1.147496107653                 
@    Nuclear repulsion:             0.694385430662
@    Electronic energy:            -1.841881538315

@    Final gradient norm:           0.000000024137

 
     Date and time (Linux)  : Fri Apr  7 16:46:08 2023
     Host name              : hapka                                   

 Occupancies of natural orbitals
 -------------------------------

 Symmetry 1  ( A  ) -- Total occupation in this symmetry is   2.000000000

   1.974630876   0.025369124

  Effective numbers of unpaired electrons this symmetry Eqs. 1) and 2):  0.10  0.01

  Total effective number of unpaired electrons :
  Eq. 1) sum(i) [(2 - n_i) n_i]    =  0.1002
  Eq. 2) sum(i) [(2 - n_i) n_i]**2 =  0.0050
 (Reference: M. Head-Gordon, Chemical Physics Letters 372 (2003) 508-511)

  --- NOTE THAT THE OCCUPATION NUMBERS ARE FOR ANALYSIS PURPOSE ONLY
  --- The orbital coefficients have NOT been transformed
  --- to ordered natural orbitals.

File label for MO orbitals:   7Apr23   (CNOORB)

 (Only coefficients > 0.0100 are printed.)

 Molecular orbitals for symmetry species 1  (A  )
 ------------------------------------------------

    Orbital         1        2        3        4        5        6        7
   1 H   :1s    -0.0001   0.0000   0.0192  -0.0137  -0.0000  -0.0087  -0.1078
   2 H   :1s    -0.0024  -0.0000  -0.8595   1.5835   0.0000  -2.6161   0.4969
   3 H   :1s     0.0013   0.0000   1.8569  -1.6423  -0.0000   5.6395   0.6936
   6 H   :2pz   -0.0000  -0.0000   0.0016   0.0034   0.0000  -0.0063  -0.0197
   8 H   :2py   -0.0000   0.0020  -0.0000   0.0000  -0.0239   0.0000   0.0000
   9 H   :2pz   -0.0007   0.0000   0.1183  -0.3929  -0.0000   0.6066   0.4448
  10 H   :1s    -0.0002   0.0000   0.0170  -0.0042  -0.0000  -0.0185  -0.1104
  11 H   :1s     0.0015   0.0000   0.6069  -1.5512  -0.0000   2.7409   1.4524
  12 H   :1s    -0.0001  -0.0000  -0.8736   1.1302   0.0000  -6.6281  -2.0313
  15 H   :2pz   -0.0004  -0.0000  -0.0059   0.0014   0.0000  -0.0065   0.0183
  17 H   :2py    0.0000  -0.0022   0.0000  -0.0000   0.0245  -0.0000  -0.0000
  18 H   :2pz    0.0021   0.0000   0.2275  -0.3187  -0.0000   0.6320  -0.2435
  19 H   :1s    -0.6996   1.6326  -0.0477  -0.0919   0.0732   0.0029  -0.0556
  20 H   :1s     0.1838  -0.4803  -0.0760  -0.3153   3.3556  -0.0983   0.0584
  21 H   :1s    -0.0059  -0.0352   0.1755   0.6706  -4.9030   0.7273   0.2230
  23 H   :2py    0.0178   0.0234   0.0038   0.0123   0.0150   0.0028  -0.0004
  26 H   :2py   -0.0009  -0.0260  -0.0143  -0.0737  -0.7265  -0.0424  -0.0046
  27 H   :2pz    0.0001   0.0004   0.0099  -0.0134  -0.0016   0.0199   0.0832
  28 H   :1s    -0.6996  -1.6326  -0.0477  -0.0919  -0.0732   0.0029  -0.0556
  29 H   :1s     0.1838   0.4803  -0.0760  -0.3153  -3.3556  -0.0983   0.0584
  30 H   :1s    -0.0059   0.0352   0.1755   0.6706   4.9030   0.7273   0.2230
  32 H   :2py   -0.0178   0.0234  -0.0038  -0.0123   0.0150  -0.0028   0.0004
  35 H   :2py    0.0009  -0.0260   0.0143   0.0737  -0.7265   0.0424   0.0046
  36 H   :2pz    0.0001  -0.0004   0.0099  -0.0134   0.0016   0.0199   0.0832

    Orbital         8        9       10       11       12
   1 H   :1s     0.0435   0.0000   0.0000   0.0000   0.0299
   2 H   :1s   -12.0902   0.0000   0.0000   0.0000  10.5016
   3 H   :1s     4.0268   0.0000   0.0000   0.0000  -1.4801
   4 H   :2px    0.0000  -0.0060   0.0000   0.0573   0.0000
   5 H   :2py   -0.0000   0.0000  -0.0505   0.0000   0.0000
   6 H   :2pz   -0.0238   0.0000   0.0000   0.0000   0.0088
   7 H   :2px    0.0000  -0.0918   0.0000  -0.6580   0.0000
   8 H   :2py    0.0000   0.0000   0.4713   0.0000  -0.0000
   9 H   :2pz    2.8338   0.0000  -0.0000   0.0000  -2.0775
  10 H   :1s    -0.0011   0.0000   0.0000   0.0000   0.0566
  11 H   :1s    12.0337   0.0000  -0.0000   0.0000 -10.5739
  12 H   :1s    -4.4161   0.0000  -0.0000   0.0000   1.2982
  13 H   :2px    0.0000  -0.0267   0.0000   0.0461   0.0000
  14 H   :2py    0.0000   0.0000  -0.0523   0.0000   0.0000
  15 H   :2pz   -0.0207   0.0000   0.0000   0.0000   0.0259
  16 H   :2px    0.0000   0.3828   0.0000  -0.3832   0.0000
  17 H   :2py   -0.0000   0.0000   0.5585   0.0000   0.0000
  18 H   :2pz    2.6303   0.0000  -0.0000   0.0000  -2.6904
  19 H   :1s    -0.0944   0.0000  -0.0157   0.0000   0.0247
  20 H   :1s     0.1370   0.0000   2.9770   0.0000  -0.0138
  21 H   :1s     0.2541   0.0000  -1.0471   0.0000   0.0753
  22 H   :2px    0.0000  -0.0128   0.0000  -0.0008   0.0000
  24 H   :2pz   -0.0078   0.0000  -0.0137   0.0000   0.0010
  25 H   :2px    0.0000   0.4886   0.0000   0.1538   0.0000
  26 H   :2py    0.0708   0.0000  -0.7364   0.0000   0.1888
  27 H   :2pz    0.3266   0.0000   0.4482   0.0000   0.3874
  28 H   :1s    -0.0944   0.0000   0.0157   0.0000   0.0247
  29 H   :1s     0.1370   0.0000  -2.9770   0.0000  -0.0138
  30 H   :1s     0.2541   0.0000   1.0471   0.0000   0.0753
  31 H   :2px    0.0000  -0.0128   0.0000  -0.0008   0.0000
  33 H   :2pz   -0.0078   0.0000   0.0137   0.0000   0.0010
  34 H   :2px    0.0000   0.4886   0.0000   0.1538   0.0000
  35 H   :2py   -0.0708   0.0000  -0.7364   0.0000  -0.1888
  36 H   :2pz    0.3266   0.0000  -0.4482   0.0000   0.3874

 Printout of CI-coefficients abs greater than 0.05000 for root  1
 *** NOTE: this root is the reference state ***

 Printout of coefficients in interval  3.1623E-01 to  1.0000E+00
 ===============================================================

  Coefficient of CSF no.         1 is      0.99363748    9.93637478E-01
  Orbital          1
  Spin coupling    2

 Printout of coefficients in interval  1.0000E-01 to  3.1623E-01
 ===============================================================

  Coefficient of CSF no.         2 is     -0.11262576   -1.12625760E-01
  Orbital          2
  Spin coupling    2

 Printout of coefficients in interval  5.0000E-02 to  1.0000E-01
 ===============================================================
   ( no coefficients )

 Norm of printed CI vector ..      1.00000000

 Magnitude of CI coefficients
 ============================
 ( Ranges are relative to norm of vector :  1.00E+00 )

  10- 1 to 10- 0         2    0.10000000E+01      1.0000000000
  Number of coefficients less than 10^-11 times norm is            1

  Total CPU  time used in SIRIUS :   0.15 seconds
  Total wall time used in SIRIUS :   0.15 seconds

 
     Date and time (Linux)  : Fri Apr  7 16:46:08 2023
     Host name              : hapka                                   

 NOTE:    2 warnings have been issued.
 Check output, result, and error files for "WARNING".


                     .---------------------------------------.
                     | End of Wave Function Section (SIRIUS) |
                     `---------------------------------------'

  Total CPU  time used in DALTON:   0.17 seconds
  Total wall time used in DALTON:   0.17 seconds

 
     Date and time (Linux)  : Fri Apr  7 16:46:08 2023
     Host name              : hapka                                   
